# vtk DataFile Version 1.0
ECM-CELL DIFFUSION-MECHANICS
ASCII

DATASET UNSTRUCTURED_GRID
POINTS      258 float
1.50000000E+001 3.00000000E+001 0.00000000E+000
-5.00000000E+000 3.00000000E+001 0.00000000E+000
-5.00000000E+000 0.00000000E+000 0.00000000E+000
-2.50000000E+001 0.00000000E+000 0.00000000E+000
-2.69134178E+001 -9.61939812E+000 0.00000000E+000
-2.85355339E+001 -8.53553391E+000 0.00000000E+000
-2.96193981E+001 -6.91341734E+000 0.00000000E+000
-3.00000000E+001 -5.00000000E+000 0.00000000E+000
-2.96193981E+001 -3.08658290E+000 0.00000000E+000
-2.85355339E+001 -1.46446609E+000 0.00000000E+000
-2.69134178E+001 -3.80602330E-001 0.00000000E+000
-2.50000000E+001 -1.00000000E+001 0.00000000E+000
5.00000000E+000 -1.00000000E+001 0.00000000E+000
5.00000000E+000 2.00000000E+001 0.00000000E+000
1.30000000E+001 3.00000000E+001 0.00000000E+000
1.10000000E+001 3.00000000E+001 0.00000000E+000
9.00000000E+000 3.00000000E+001 0.00000000E+000
7.00000000E+000 3.00000000E+001 0.00000000E+000
5.00000000E+000 3.00000000E+001 0.00000000E+000
3.00000000E+000 3.00000000E+001 0.00000000E+000
1.00000000E+000 3.00000000E+001 0.00000000E+000
-1.00000000E+000 3.00000000E+001 0.00000000E+000
-3.00000000E+000 3.00000000E+001 0.00000000E+000
-5.00000000E+000 2.80000000E+001 0.00000000E+000
-5.00000000E+000 2.60000000E+001 0.00000000E+000
-5.00000000E+000 2.40000000E+001 0.00000000E+000
-5.00000000E+000 2.20000000E+001 0.00000000E+000
-5.00000000E+000 2.00000000E+001 0.00000000E+000
-5.00000000E+000 1.80000000E+001 0.00000000E+000
-5.00000000E+000 1.60000000E+001 0.00000000E+000
-5.00000000E+000 1.40000000E+001 0.00000000E+000
-5.00000000E+000 1.20000000E+001 0.00000000E+000
-5.00000000E+000 1.00000000E+001 0.00000000E+000
-5.00000000E+000 8.00000000E+000 0.00000000E+000
-5.00000000E+000 6.00000000E+000 0.00000000E+000
-5.00000000E+000 4.00000000E+000 0.00000000E+000
-5.00000000E+000 2.00000000E+000 0.00000000E+000
-7.00000000E+000 0.00000000E+000 0.00000000E+000
-9.00000000E+000 0.00000000E+000 0.00000000E+000
-1.10000000E+001 0.00000000E+000 0.00000000E+000
-1.30000000E+001 0.00000000E+000 0.00000000E+000
-1.50000000E+001 0.00000000E+000 0.00000000E+000
-1.70000000E+001 0.00000000E+000 0.00000000E+000
-1.90000000E+001 0.00000000E+000 0.00000000E+000
-2.10000000E+001 0.00000000E+000 0.00000000E+000
-2.30000000E+001 0.00000000E+000 0.00000000E+000
3.00000000E+000 -1.00000000E+001 0.00000000E+000
1.00000000E+000 -1.00000000E+001 0.00000000E+000
-1.00000000E+000 -1.00000000E+001 0.00000000E+000
-3.00000000E+000 -1.00000000E+001 0.00000000E+000
-5.00000000E+000 -1.00000000E+001 0.00000000E+000
-7.00000000E+000 -1.00000000E+001 0.00000000E+000
-9.00000000E+000 -1.00000000E+001 0.00000000E+000
-1.10000000E+001 -1.00000000E+001 0.00000000E+000
-1.30000000E+001 -1.00000000E+001 0.00000000E+000
-1.50000000E+001 -1.00000000E+001 0.00000000E+000
-1.70000000E+001 -1.00000000E+001 0.00000000E+000
-1.90000000E+001 -1.00000000E+001 0.00000000E+000
-2.10000000E+001 -1.00000000E+001 0.00000000E+000
-2.30000000E+001 -1.00000000E+001 0.00000000E+000
5.00000000E+000 1.80000000E+001 0.00000000E+000
5.00000000E+000 1.60000000E+001 0.00000000E+000
5.00000000E+000 1.40000000E+001 0.00000000E+000
5.00000000E+000 1.20000000E+001 0.00000000E+000
5.00000000E+000 1.00000000E+001 0.00000000E+000
5.00000000E+000 8.00000000E+000 0.00000000E+000
5.00000000E+000 6.00000000E+000 0.00000000E+000
5.00000000E+000 4.00000000E+000 0.00000000E+000
5.00000000E+000 2.00000000E+000 0.00000000E+000
5.00000000E+000 0.00000000E+000 0.00000000E+000
5.00000000E+000 -2.00000000E+000 0.00000000E+000
5.00000000E+000 -4.00000000E+000 0.00000000E+000
5.00000000E+000 -6.00000000E+000 0.00000000E+000
5.00000000E+000 -8.00000000E+000 0.00000000E+000
6.42857122E+000 2.14285717E+001 0.00000000E+000
7.85714293E+000 2.28571434E+001 0.00000000E+000
9.28571415E+000 2.42857151E+001 0.00000000E+000
1.07142859E+001 2.57142849E+001 0.00000000E+000
1.21428576E+001 2.71428566E+001 0.00000000E+000
1.35714283E+001 2.85714283E+001 0.00000000E+000
-2.55692158E+001 -7.47994947E+000 0.00000000E+000
-2.68123989E+001 -6.65812349E+000 0.00000000E+000
-2.78370075E+001 -5.65078545E+000 0.00000000E+000
-2.49931679E+001 -2.99975061E+000 0.00000000E+000
-6.07402325E+000 -2.51799893E+000 0.00000000E+000
-3.41205382E+000 6.06536293E+000 0.00000000E+000
-7.90601015E+000 -2.16468501E+000 0.00000000E+000
6.93360615E+000 2.85683231E+001 0.00000000E+000
5.03122282E+000 2.85983677E+001 0.00000000E+000
3.07519960E+000 2.83579216E+001 0.00000000E+000
1.02007830E+000 2.82704353E+001 0.00000000E+000
-1.00747931E+000 2.81540108E+001 0.00000000E+000
-2.98253322E+000 2.20530071E+001 0.00000000E+000
-3.14535069E+000 1.99964409E+001 0.00000000E+000
-3.38007402E+000 1.80213890E+001 0.00000000E+000
-3.24730754E+000 1.60810070E+001 0.00000000E+000
-3.22061014E+000 1.40090933E+001 0.00000000E+000
-3.27037716E+000 1.19557343E+001 0.00000000E+000
-3.32515502E+000 9.95609379E+000 0.00000000E+000
-3.37583542E+000 7.99501371E+000 0.00000000E+000
-3.38906217E+000 4.20707273E+000 0.00000000E+000
-3.21241689E+000 2.45526028E+000 0.00000000E+000
-2.81301451E+000 1.00452256E+000 0.00000000E+000
-9.85906696E+000 -1.94350755E+000 0.00000000E+000
-1.18253517E+001 -1.81189597E+000 0.00000000E+000
-1.37737036E+001 -1.72045147E+000 0.00000000E+000
-1.56994905E+001 -1.64893782E+000 0.00000000E+000
-1.76126289E+001 -1.59551537E+000 0.00000000E+000
-1.95252953E+001 -1.56757510E+000 0.00000000E+000
-2.14428196E+001 -1.57937253E+000 0.00000000E+000
-2.40465412E+001 -7.98486996E+000 0.00000000E+000
-2.32975655E+001 -1.60528278E+000 0.00000000E+000
-8.58305335E-001 -8.21509266E+000 0.00000000E+000
-2.85219836E+000 -8.24649334E+000 0.00000000E+000
-4.86234474E+000 -8.28040028E+000 0.00000000E+000
-6.82275486E+000 -8.35858631E+000 0.00000000E+000
-8.72553921E+000 -8.46272755E+000 0.00000000E+000
-1.06668940E+001 -8.49340248E+000 0.00000000E+000
-1.26085234E+001 -8.47250462E+000 0.00000000E+000
-1.45571985E+001 -8.43932819E+000 0.00000000E+000
-1.65147133E+001 -8.41329861E+000 0.00000000E+000
-1.84622021E+001 -8.38815498E+000 0.00000000E+000
-2.03904629E+001 -8.34011364E+000 0.00000000E+000
-2.22757702E+001 -8.22864628E+000 0.00000000E+000
3.32341838E+000 1.79214497E+001 0.00000000E+000
3.49274993E+000 1.58118629E+001 0.00000000E+000
3.45036292E+000 1.38697481E+001 0.00000000E+000
3.40310287E+000 1.19041443E+001 0.00000000E+000
3.36840963E+000 9.92752457E+000 0.00000000E+000
3.33398676E+000 7.94917822E+000 0.00000000E+000
3.27319622E+000 5.98151016E+000 0.00000000E+000
3.14357090E+000 4.00265217E+000 0.00000000E+000
2.93195248E+000 2.00336671E+000 0.00000000E+000
2.85718203E+000 -7.79486522E-002 0.00000000E+000
2.96486330E+000 -2.16540527E+000 0.00000000E+000
3.04931951E+000 -4.18990898E+000 0.00000000E+000
3.07869506E+000 -6.14942598E+000 0.00000000E+000
3.06127834E+000 -8.08621216E+000 0.00000000E+000
8.87478542E+000 2.87956104E+001 0.00000000E+000
1.06500645E+001 2.90019722E+001 0.00000000E+000
9.73117542E+000 2.65182457E+001 0.00000000E+000
4.64431381E+000 2.23340874E+001 0.00000000E+000
8.02427673E+000 2.53785686E+001 0.00000000E+000
6.40424109E+000 2.39808598E+001 0.00000000E+000
-2.30793724E+001 -6.28166199E+000 0.00000000E+000
-2.65148945E+001 -3.90364408E+000 0.00000000E+000
-3.43422222E+000 -1.27146482E+000 0.00000000E+000
1.04067838E+000 2.66475811E+001 0.00000000E+000
1.10761571E+000 -8.16181087E+000 0.00000000E+000
-7.36092031E-001 -6.43063927E+000 0.00000000E+000
-4.75875711E+000 -6.53175259E+000 0.00000000E+000
-6.72676086E+000 -6.65011883E+000 0.00000000E+000
-8.50626945E+000 -6.96918011E+000 0.00000000E+000
-1.03056269E+001 -7.00035810E+000 0.00000000E+000
-1.21337996E+001 -6.91552496E+000 0.00000000E+000
-1.40198870E+001 -6.83708525E+000 0.00000000E+000
-1.59333124E+001 -6.77759314E+000 0.00000000E+000
-1.20785129E+000 1.97240963E+001 0.00000000E+000
-1.32478476E+000 1.64232349E+001 0.00000000E+000
1.96661806E+000 1.56013527E+001 0.00000000E+000
1.83737338E+000 1.38039751E+001 0.00000000E+000
1.66680229E+000 7.95078230E+000 0.00000000E+000
1.58930695E+000 6.05578279E+000 0.00000000E+000
1.41368437E+000 4.18972206E+000 0.00000000E+000
-2.88116503E+000 2.41189423E+001 0.00000000E+000
-1.05743062E+000 2.20182400E+001 0.00000000E+000
-2.06459260E+000 1.80287819E+001 0.00000000E+000
1.76209581E+000 1.18621569E+001 0.00000000E+000
1.71383548E+000 9.90428638E+000 0.00000000E+000
-1.96961384E+001 -6.65574455E+000 0.00000000E+000
1.10382271E+000 -2.44856596E+000 0.00000000E+000
-2.71728683E+000 -6.50229883E+000 0.00000000E+000
-6.94966459E+000 -4.68074226E+000 0.00000000E+000
-8.87774658E+000 -3.94481039E+000 0.00000000E+000
-1.07458334E+001 -3.67898369E+000 0.00000000E+000
-1.26495609E+001 -3.53031301E+000 0.00000000E+000
-1.45555058E+001 -3.42598987E+000 0.00000000E+000
-1.64351330E+001 -3.33984756E+000 0.00000000E+000
-1.82789097E+001 -3.26375914E+000 0.00000000E+000
-1.78273373E+001 -6.72471857E+000 0.00000000E+000
-2.00785789E+001 -3.19971037E+000 0.00000000E+000
-1.49681842E+000 1.40206604E+001 0.00000000E+000
-1.58211720E+000 1.19191847E+001 0.00000000E+000
-1.64738953E+000 9.92495728E+000 0.00000000E+000
-1.70833540E+000 7.99023056E+000 0.00000000E+000
-1.75975442E+000 6.13986826E+000 0.00000000E+000
-1.75903368E+000 4.42714834E+000 0.00000000E+000
-1.57233489E+000 2.89093947E+000 0.00000000E+000
8.35785091E-001 2.16724944E+000 0.00000000E+000
6.82180047E-001 -2.41043478E-001 0.00000000E+000
1.19283760E+000 -4.42227745E+000 0.00000000E+000
5.08529997E+000 2.73792095E+001 0.00000000E+000
3.36510825E+000 2.64843388E+001 0.00000000E+000
2.03854513E+000 1.69918709E+001 0.00000000E+000
-2.18747597E+001 -3.21142745E+000 0.00000000E+000
-2.14750767E+001 -6.53344297E+000 0.00000000E+000
3.87977886E+000 2.02254429E+001 0.00000000E+000
6.80135918E+000 2.67542229E+001 0.00000000E+000
3.63350844E+000 2.38850384E+001 0.00000000E+000
-2.38274765E+001 -3.46659899E+000 0.00000000E+000
1.18041360E+000 -6.30371428E+000 0.00000000E+000
-9.38736618E-001 2.63029137E+001 0.00000000E+000
1.22929611E+001 2.88663254E+001 0.00000000E+000
-2.54329395E+001 -4.97643757E+000 0.00000000E+000
-2.34656639E+001 -4.58569384E+000 0.00000000E+000
2.50105619E+000 2.18994751E+001 0.00000000E+000
1.02533674E+000 1.74530888E+001 0.00000000E+000
-2.03710103E+000 -2.63990819E-001 0.00000000E+000
-2.58995533E+000 -4.80094004E+000 0.00000000E+000
-8.48027420E+000 -5.76261616E+000 0.00000000E+000
-9.76420498E+000 -5.45034361E+000 0.00000000E+000
-1.15105400E+001 -5.29605007E+000 0.00000000E+000
-1.33758335E+001 -5.19502783E+000 0.00000000E+000
-1.39613941E-001 4.48769760E+000 0.00000000E+000
-4.65231037E+000 -4.77523041E+000 0.00000000E+000
-6.82374060E-001 -2.91642618E+000 0.00000000E+000
-1.52690411E+001 -5.11363983E+000 0.00000000E+000
-6.56300783E-002 6.15421581E+000 0.00000000E+000
-1.08489251E+000 -1.39932156E+000 0.00000000E+000
-1.06679821E+000 1.62087166E+000 0.00000000E+000
-1.24161234E-002 7.98827744E+000 0.00000000E+000
8.48017856E-002 1.18839493E+001 0.00000000E+000
3.37320901E-002 9.92000008E+000 0.00000000E+000
1.64119601E-001 1.38965883E+001 0.00000000E+000
4.08286780E-001 1.58328867E+001 0.00000000E+000
6.25479996E-001 2.03010693E+001 0.00000000E+000
-1.50913820E-001 1.81863232E+001 0.00000000E+000
-1.71419277E+001 -5.04282713E+000 0.00000000E+000
-1.89704075E+001 -4.97220182E+000 0.00000000E+000
-5.94378114E-001 2.42636070E+001 0.00000000E+000
1.91058230E+000 1.87361507E+001 0.00000000E+000
-2.22677994E+001 -4.73615551E+000 0.00000000E+000
5.08411074E+000 2.51987476E+001 0.00000000E+000
-6.61113381E-001 -4.65103960E+000 0.00000000E+000
-2.35311747E+000 -1.99394405E+000 0.00000000E+000
7.17164218E-001 2.19067993E+001 0.00000000E+000
2.42589617E+000 2.30299225E+001 0.00000000E+000
-4.26703167E+000 -2.97138119E+000 0.00000000E+000
-2.47106886E+000 -3.21366310E+000 0.00000000E+000
-2.95505738E+000 2.61031113E+001 0.00000000E+000
-2.44062843E+001 -5.78745651E+000 0.00000000E+000
1.11900005E+001 2.76029587E+001 0.00000000E+000
-3.00564528E+000 2.80624599E+001 0.00000000E+000
-2.86195679E+001 -4.77531338E+000 0.00000000E+000
-2.77284527E+001 -2.32228160E+000 0.00000000E+000
-2.65301876E+001 -2.03538251E+000 0.00000000E+000
-2.49753170E+001 -1.63643456E+000 0.00000000E+000
-2.81240730E+001 -3.52081490E+000 0.00000000E+000
8.99391651E+000 2.75412903E+001 0.00000000E+000
2.33917475E+000 2.03422546E+001 0.00000000E+000
1.04003115E+001 2.80933590E+001 0.00000000E+000
-8.09095621E-001 4.35396373E-001 0.00000000E+000
2.31196761E+000 2.47869625E+001 0.00000000E+000
-2.07040234E+001 -4.87518072E+000 0.00000000E+000
8.12728226E-001 1.91052380E+001 0.00000000E+000
9.86865878E-001 2.53211288E+001 0.00000000E+000
1.19369018E+000 2.34800301E+001 0.00000000E+000
-2.93027848E-001 3.20813227E+000 0.00000000E+000

CELLS      217     1085
   4         142         140         248         197
   4          21          91          90          20
   4          49         113         114          50
   4          64         128         129          65
   4          37          86          84           2
   4         110          11          59         123
   4           5           4          80          81
   4         109         194         180         108
   4           7           6          82         243
   4         144         240          80         110
   4         245         145          83         246
   4          87          17          18          88
   4         138          87         197         248
   4          89          19          20          90
   4         192         191          88          89
   4          22         242          91          21
   4           1          23         242          22
   4          25          26          92         164
   4          89          90         147         192
   4         201         239         164         229
   4          93          92          26          27
   4          94          93          27          28
   4          95          94          28          29
   4          96          95          29          30
   4          97          96          30          31
   4          98          97          31          32
   4          85          99          33          34
   4         100          85          34          35
   4         101         100          35          36
   4         102         101          36           2
   4         149         233         208         171
   4          38         103          86          37
   4          39         104         103          38
   4          40         105         104          39
   4          41         106         105          40
   4          42         107         106          41
   4          43         108         107          42
   4          44         109         108          43
   4         122          58          57         121
   4          82          81         203         145
   4          46          12          73         137
   4          46         137         148          47
   4         170         190         135         134
   4          48         112         113          49
   4          50         114         115          51
   4         114         150         151         115
   4         152         116         115         151
   4         152         153         117         116
   4         153         154         118         117
   4         154         155         119         118
   4         155         156         120         119
   4         249         225         254         230
   4         230         206         193         124
   4         166         158         226         157
   4         160         159         224         223
   4         159         160         126         125
   4          63         127         128          64
   4          65         129         130          66
   4         130         129         161         162
   4         162         163         131         130
   4          69         133         134          70
   4          70         134         135          71
   4          71         135         136          72
   4          72         136         137          73
   4          17          87         138          16
   4          16         138         139          15
   4          14         202          79           0
   4         202          14          15         139
   4           9         244         245          10
   4          80           4          11         110
   4          81          82           6           5
   4         247         243          82         145
   4          45         111         109          44
   4          10         245         246           3
   4          51         115         116          52
   4          88          18          19          89
   4         142          76          77         140
   4         142         143          75          76
   4         198         232         192         252
   4         165         229         164          92
   4          23          24         239         242
   4          93         157         165          92
   4         206         226         158         224
   4          60         124         125          61
   4          61         125         126          62
   4          62         126         127          63
   4          99          98          32          33
   4         160         167         127         126
   4         221         182         183         222
   4          66         130         131          67
   4          67         131         132          68
   4         146           2          84         237
   4          68         132         133          69
   4          52         116         117          53
   4          53         117         118          54
   4          54         118         119          55
   4          55         119         120          56
   4          56         120         121          57
   4         123         122         169         195
   4         111          45           3         246
   4         111         199         194         109
   4         123          59          58         122
   4         203         199          83         145
   4         112          48          47         148
   4         234         218         207         146
   4         171         113         112         149
   4         214         208         238         237
   4         214         172         151         150
   4         209         210         153         152
   4         153         210         211         154
   4         154         211         212         155
   4         216         176         177         227
   4         227         177         178         228
   4         156         179         121         120
   4         108         180         178         107
   4         144         231         204         240
   4         124          60          13         196
   4         141         196          13          74
   4         181         223         224         158
   4         223         181         182         221
   4         222         183         184         220
   4          99         184         183          98
   4         184         185         217         220
   4         185         186         213         217
   4         186         187         257         213
   4         163         188         132         131
   4         219         188         257         187
   4         234         238         215         218
   4         215         233         190         170
   4         190         200         136         135
   4         200         148         137         136
   4          77          78         241         140
   4         241         202         139         250
   4          74          75         143         141
   4          88         191         197          87
   4         110         123         195         144
   4         102           2         146         207
   4         172         214         237          84
   4          90          91         201         147
   4         226         206         230         254
   4         112         148         200         149
   4         150         114         113         171
   4          86         173         172          84
   4         103         174         173          86
   4         104         175         174         103
   4         105         176         175         104
   4         106         177         176         105
   4         107         178         177         106
   4         158         166          94          95
   4          95          96         181         158
   4         181          96          97         182
   4         125         124         193         159
   4         129         128         168         161
   4          85         185         184          99
   4         100         186         185          85
   4         101         187         186         100
   4          24          25         164         239
   4         255         229         256         252
   4         157          93          94         166
   4          98         183         182          97
   4         128         127         167         168
   4         122         121         179         169
   4         204         231         194         199
   4         134         133         189         170
   4         173         210         209         172
   4         174         211         210         173
   4         175         212         211         174
   4         176         216         212         175
   4         179         227         228         169
   4         227         179         156         216
   4         231         253         180         194
   4         187         101         102         219
   4         251         207         218         189
   4         132         188         189         133
   4         188         163         213         257
   4         200         190         233         149
   4         232         197         191         192
   4         252         256         236         198
   4         230         124         196         249
   4         111         246          83         199
   4         195         253         231         144
   4         205         141         198         236
   4         198         141         143         232
   4         199         203         240         204
   4         239         201          91         242
   4          78          79         202         241
   4         240         203          81          80
   4         236         256         235         205
   4         196         141         205         249
   4         159         193         206         224
   4         219         102         207         251
   4         171         208         214         150
   4         209         152         151         172
   4         217         213         163         162
   4         215         238         208         233
   4         216         156         155         212
   4         220         217         162         161
   4         188         219         251         189
   4         222         220         161         168
   4         168         167         221         222
   4         223         221         167         160
   4         225         235         165         157
   4         228         178         180         253
   4         232         143         142         197
   4         201         229         255         147
   4         146         237         238         234
   4         205         235         225         249
   4           8           7         243         247
   4         247         244           9           8
   4         145         245         244         247
   4         250         248         140         241
   4         138         248         250         139
   4         252         192         147         255
   4         253         195         169         228
   4         157         226         254         225
   4         256         229         165         235
   4         170         189         218         215

CELL_TYPES      217
    9     9     9     9     9     9     9     9     9     9     9     9     9     9     9     9     9     9     9     9     9     9     9     9     9     9     9     9     9     9     9     9     9     9     9     9     9     9     9     9     9     9     9     9     9     9     9     9     9     9     9     9     9     9     9     9     9     9     9     9     9     9     9     9     9     9     9     9     9     9     9     9     9     9     9     9     9     9     9     9     9     9     9     9     9     9     9     9     9     9     9     9     9     9     9     9     9     9     9     9     9     9     9     9     9     9     9     9     9     9     9     9     9     9     9     9     9     9     9     9     9     9     9     9     9     9     9     9     9     9     9     9     9     9     9     9     9     9     9     9     9     9     9     9     9     9     9     9     9     9     9     9     9     9     9     9     9     9     9     9     9     9     9     9     9     9     9     9     9     9     9     9     9     9     9     9     9     9     9     9     9     9     9     9     9     9     9     9     9     9     9     9     9     9     9     9     9     9     9     9     9     9     9     9     9     9     9     9     9     9     9     9     9     9     9     9     9 
POINT_DATA      258
SCALARS Ux float
LOOKUP_TABLE default
1.00000000E+000
9.24930415E-001
4.64052479E-001
9.71445147E-017
1.73472348E-018
-2.29850861E-017
-7.15573434E-018
-1.82145965E-017
-1.30104261E-017
-3.46944695E-018
-1.73472348E-017
-6.93889390E-018
4.64795003E-001
1.00000000E+000
9.98712060E-001
9.94388442E-001
9.86971797E-001
9.76950983E-001
9.65213759E-001
9.52887696E-001
9.41563532E-001
9.32583210E-001
9.26864787E-001
9.22897727E-001
9.16558555E-001
9.05553007E-001
8.89611251E-001
8.68534092E-001
8.42354521E-001
8.11569645E-001
7.77742255E-001
7.41868851E-001
7.04512058E-001
6.65978608E-001
6.26095727E-001
5.83919918E-001
5.36604690E-001
3.93258856E-001
3.45585098E-001
3.03187203E-001
2.62897723E-001
2.23605595E-001
1.84784794E-001
1.46080806E-001
1.06837107E-001
6.62102933E-002
4.61913020E-001
4.53098488E-001
4.38395678E-001
4.18039460E-001
3.92618837E-001
3.62995904E-001
3.30128078E-001
2.95014316E-001
2.58522282E-001
2.21212367E-001
1.83388218E-001
1.45116703E-001
1.05984399E-001
6.42845309E-002
8.84483028E-001
8.34829888E-001
7.90260902E-001
7.49279394E-001
7.09992000E-001
6.71906107E-001
6.35007444E-001
5.99729172E-001
5.66886518E-001
5.37287212E-001
5.11774738E-001
4.91306361E-001
4.76550777E-001
4.67698548E-001
1.00000000E+000
1.00000000E+000
1.00000000E+000
1.00000000E+000
1.00000000E+000
1.00000000E+000
2.77852127E-002
1.90079997E-002
1.28453743E-002
3.92737415E-002
4.02002515E-001
6.27998549E-001
3.67112946E-001
9.77046064E-001
9.65614825E-001
9.53023369E-001
9.40755188E-001
9.31103674E-001
8.92980622E-001
8.70710183E-001
8.44169593E-001
8.14002602E-001
7.78745908E-001
7.41555500E-001
7.04041063E-001
6.66270195E-001
5.89546933E-001
5.50824693E-001
5.23260562E-001
3.25817518E-001
2.85891826E-001
2.47387790E-001
2.09895158E-001
1.72930316E-001
1.36013090E-001
9.87542265E-002
5.03547520E-002
6.02684638E-002
4.41908229E-001
4.21754077E-001
3.96118863E-001
3.66853528E-001
3.35459566E-001
3.01376876E-001
2.65990404E-001
2.29683576E-001
1.92722420E-001
1.55607824E-001
1.18471741E-001
8.12368352E-002
8.80939363E-001
8.28520229E-001
7.86784182E-001
7.46885158E-001
7.08242756E-001
6.70581289E-001
6.34136184E-001
5.98807832E-001
5.65169955E-001
5.33698410E-001
5.07042179E-001
4.86917734E-001
4.73024171E-001
4.64749126E-001
9.86861597E-001
9.93618065E-001
9.94200288E-001
9.69824008E-001
9.89170899E-001
9.83189774E-001
7.15036753E-002
2.40740263E-002
4.69308050E-001
9.38181673E-001
4.56186486E-001
4.49927554E-001
4.02624859E-001
3.71875741E-001
3.41170645E-001
3.09059981E-001
2.75556491E-001
2.40283330E-001
2.04096951E-001
8.74732866E-001
8.23919856E-001
8.20123877E-001
7.83134661E-001
6.69569193E-001
6.34026901E-001
5.99709111E-001
9.09169487E-001
9.01130093E-001
8.47377207E-001
7.44725448E-001
7.06811868E-001
1.32614462E-001
4.96102986E-001
4.29523557E-001
3.74957731E-001
3.41366050E-001
3.05468758E-001
2.68466532E-001
2.31595846E-001
1.95422200E-001
1.60099776E-001
1.68099871E-001
1.25815162E-001
7.81182283E-001
7.42188550E-001
7.04452968E-001
6.67289936E-001
6.31181139E-001
5.97166543E-001
5.67343882E-001
5.62702898E-001
5.23113562E-001
4.77234468E-001
9.66447172E-001
9.53972183E-001
8.49381949E-001
9.18212783E-002
9.95663191E-002
9.46379529E-001
9.78571532E-001
9.54247143E-001
5.84243237E-002
4.64185981E-001
9.26972402E-001
9.97847478E-001
3.74937247E-002
6.61902897E-002
9.32655853E-001
8.52592395E-001
5.02999235E-001
4.41706137E-001
3.43942072E-001
3.21126407E-001
2.88674352E-001
2.53344175E-001
6.02094062E-001
4.13263680E-001
4.78867531E-001
2.17264732E-001
6.33766159E-001
4.94307325E-001
5.45500392E-001
6.68794638E-001
7.43310151E-001
7.05737101E-001
7.81786374E-001
8.19122049E-001
8.94202459E-001
8.58287533E-001
1.81546367E-001
1.46830479E-001
9.19830449E-001
8.84547378E-001
8.64181378E-002
9.68244693E-001
4.62435604E-001
4.73159722E-001
9.12552826E-001
9.38939180E-001
4.34617409E-001
4.57682135E-001
9.19404943E-001
5.13192140E-002
9.96801752E-001
9.25033860E-001
7.67121604E-003
7.83514983E-003
1.54705479E-002
3.13597956E-002
8.91104812E-003
9.88985594E-001
9.14623310E-001
9.93594105E-001
5.25515713E-001
9.43471650E-001
1.14407231E-001
8.79784408E-001
9.34568996E-001
9.28465066E-001
5.77684615E-001
